MODEL 1
REMARK VINA RESULT:    -5.468      0.000      0.000
REMARK INTER + INTRA:          -7.299
REMARK INTER:                  -6.587
REMARK INTRA:                  -0.712
REMARK UNBOUND:                -0.712
REMARK SMILES CC(=O)Oc1ccccc1C(=O)O
REMARK SMILES IDX 5 1 10 2 6 3 9 4 7 5 8 6 4 7 2 8 3 9 1 10 11 11 12 12 13 13
REMARK H PARENT 13 14
ROOT
ATOM      1  C   UNL     1      -9.974  14.947  33.252  1.00  0.00    +0.145 A 
ATOM      2  C   UNL     1      -9.261  16.089  33.643  1.00  0.00    +0.102 A 
ATOM      3  C   UNL     1      -9.851  14.423  31.961  1.00  0.00    +0.048 A 
ATOM      4  C   UNL     1      -8.443  16.722  32.694  1.00  0.00    +0.019 A 
ATOM      5  C   UNL     1      -9.034  15.062  31.033  1.00  0.00    +0.004 A 
ATOM      6  C   UNL     1      -8.333  16.212  31.396  1.00  0.00    +0.001 A 
ENDROOT
BRANCH   1   7
ATOM      7  O   UNL     1     -10.787  14.241  34.143  1.00  0.00    -0.426 OA
BRANCH   7   8
ATOM      8  C   UNL     1     -12.142  14.454  33.914  1.00  0.00    +0.308 C 
ATOM      9  O   UNL     1     -12.697  15.535  33.766  1.00  0.00    -0.252 OA
ATOM     10  C   UNL     1     -12.837  13.127  33.843  1.00  0.00    +0.139 C 
ENDBRANCH   7   8
ENDBRANCH   1   7
BRANCH   2  11
ATOM     11  C   UNL     1      -9.361  16.610  35.032  1.00  0.00    +0.339 C 
ATOM     12  O   UNL     1      -8.469  16.677  35.858  1.00  0.00    -0.246 OA
BRANCH  11  13
ATOM     13  O   UNL     1     -10.601  17.040  35.335  1.00  0.00    -0.478 OA
ATOM     14  H   UNL     1     -11.186  16.383  34.903  1.00  0.00    +0.297 HD
ENDBRANCH  11  13
ENDBRANCH   2  11
TORSDOF 4
ENDMDL
MODEL 2
REMARK VINA RESULT:    -5.458      6.182      7.098
REMARK INTER + INTRA:          -7.287
REMARK INTER:                  -6.773
REMARK INTRA:                  -0.514
REMARK UNBOUND:                -0.712
REMARK SMILES CC(=O)Oc1ccccc1C(=O)O
REMARK SMILES IDX 5 1 10 2 6 3 9 4 7 5 8 6 4 7 2 8 3 9 1 10 11 11 12 12 13 13
REMARK H PARENT 13 14
ROOT
ATOM      1  C   UNL     1      -7.601  16.807  27.916  1.00  0.00    +0.145 A 
ATOM      2  C   UNL     1      -8.038  18.033  27.396  1.00  0.00    +0.102 A 
ATOM      3  C   UNL     1      -6.239  16.535  28.082  1.00  0.00    +0.048 A 
ATOM      4  C   UNL     1      -7.073  18.977  27.010  1.00  0.00    +0.019 A 
ATOM      5  C   UNL     1      -5.295  17.482  27.695  1.00  0.00    +0.004 A 
ATOM      6  C   UNL     1      -5.710  18.700  27.157  1.00  0.00    +0.001 A 
ENDROOT
BRANCH   1   7
ATOM      7  O   UNL     1      -8.497  15.825  28.351  1.00  0.00    -0.426 OA
BRANCH   7   8
ATOM      8  C   UNL     1      -8.355  14.628  27.658  1.00  0.00    +0.308 C 
ATOM      9  O   UNL     1      -7.753  13.632  28.035  1.00  0.00    -0.252 OA
ATOM     10  C   UNL     1      -9.096  14.730  26.358  1.00  0.00    +0.139 C 
ENDBRANCH   7   8
ENDBRANCH   1   7
BRANCH   2  11
ATOM     11  C   UNL     1      -9.489  18.332  27.269  1.00  0.00    +0.339 C 
ATOM     12  O   UNL     1     -10.087  18.661  26.261  1.00  0.00    -0.246 OA
BRANCH  11  13
ATOM     13  O   UNL     1     -10.148  18.197  28.437  1.00  0.00    -0.478 OA
ATOM     14  H   UNL     1      -9.545  18.606  29.092  1.00  0.00    +0.297 HD
ENDBRANCH  11  13
ENDBRANCH   2  11
TORSDOF 4
ENDMDL
MODEL 3
REMARK VINA RESULT:    -5.425      4.345      5.763
REMARK INTER + INTRA:          -7.247
REMARK INTER:                  -6.525
REMARK INTRA:                  -0.723
REMARK UNBOUND:                -0.712
REMARK SMILES CC(=O)Oc1ccccc1C(=O)O
REMARK SMILES IDX 5 1 10 2 6 3 9 4 7 5 8 6 4 7 2 8 3 9 1 10 11 11 12 12 13 13
REMARK H PARENT 13 14
ROOT
ATOM      1  C   UNL     1      -8.710  16.363  28.870  1.00  0.00    +0.145 A 
ATOM      2  C   UNL     1      -9.411  16.811  27.741  1.00  0.00    +0.102 A 
ATOM      3  C   UNL     1      -8.031  15.141  28.862  1.00  0.00    +0.048 A 
ATOM      4  C   UNL     1      -9.447  15.986  26.606  1.00  0.00    +0.019 A 
ATOM      5  C   UNL     1      -8.075  14.335  27.727  1.00  0.00    +0.004 A 
ATOM      6  C   UNL     1      -8.785  14.754  26.602  1.00  0.00    +0.001 A 
ENDROOT
BRANCH   1   7
ATOM      7  O   UNL     1      -8.601  17.137  30.029  1.00  0.00    -0.426 OA
BRANCH   7   8
ATOM      8  C   UNL     1      -9.349  16.627  31.084  1.00  0.00    +0.308 C 
ATOM      9  O   UNL     1     -10.535  16.323  31.061  1.00  0.00    -0.252 OA
ATOM     10  C   UNL     1      -8.457  16.470  32.280  1.00  0.00    +0.139 C 
ENDBRANCH   7   8
ENDBRANCH   1   7
BRANCH   2  11
ATOM     11  C   UNL     1     -10.089  18.135  27.743  1.00  0.00    +0.339 C 
ATOM     12  O   UNL     1      -9.856  19.081  27.014  1.00  0.00    -0.246 OA
BRANCH  11  13
ATOM     13  O   UNL     1     -11.058  18.217  28.676  1.00  0.00    -0.478 OA
ATOM     14  H   UNL     1     -10.942  19.115  29.052  1.00  0.00    +0.297 HD
ENDBRANCH  11  13
ENDBRANCH   2  11
TORSDOF 4
ENDMDL
MODEL 4
REMARK VINA RESULT:    -5.363      1.567      3.280
REMARK INTER + INTRA:          -7.173
REMARK INTER:                  -6.808
REMARK INTRA:                  -0.365
REMARK UNBOUND:                -0.712
REMARK SMILES CC(=O)Oc1ccccc1C(=O)O
REMARK SMILES IDX 5 1 10 2 6 3 9 4 7 5 8 6 4 7 2 8 3 9 1 10 11 11 12 12 13 13
REMARK H PARENT 13 14
ROOT
ATOM      1  C   UNL     1     -10.419  16.133  34.459  1.00  0.00    +0.145 A 
ATOM      2  C   UNL     1     -10.909  15.461  33.330  1.00  0.00    +0.102 A 
ATOM      3  C   UNL     1      -9.161  16.745  34.448  1.00  0.00    +0.048 A 
ATOM      4  C   UNL     1     -10.091  15.384  32.192  1.00  0.00    +0.019 A 
ATOM      5  C   UNL     1      -8.364  16.661  33.309  1.00  0.00    +0.004 A 
ATOM      6  C   UNL     1      -8.825  15.978  32.184  1.00  0.00    +0.001 A 
ENDROOT
BRANCH   1   7
ATOM      7  O   UNL     1     -11.180  16.280  35.622  1.00  0.00    -0.426 OA
BRANCH   7   8
ATOM      8  C   UNL     1     -10.832  15.363  36.608  1.00  0.00    +0.308 C 
ATOM      9  O   UNL     1      -9.744  15.259  37.158  1.00  0.00    -0.252 OA
ATOM     10  C   UNL     1     -12.029  14.517  36.928  1.00  0.00    +0.139 C 
ENDBRANCH   7   8
ENDBRANCH   1   7
BRANCH   2  11
ATOM     11  C   UNL     1     -12.267  14.856  33.335  1.00  0.00    +0.339 C 
ATOM     12  O   UNL     1     -12.544  13.671  33.321  1.00  0.00    -0.246 OA
BRANCH  11  13
ATOM     13  O   UNL     1     -13.245  15.783  33.365  1.00  0.00    -0.478 OA
ATOM     14  H   UNL     1     -13.776  15.535  34.151  1.00  0.00    +0.297 HD
ENDBRANCH  11  13
ENDBRANCH   2  11
TORSDOF 4
ENDMDL
MODEL 5
REMARK VINA RESULT:    -5.352      6.996      8.354
REMARK INTER + INTRA:          -7.159
REMARK INTER:                  -6.484
REMARK INTRA:                  -0.675
REMARK UNBOUND:                -0.712
REMARK SMILES CC(=O)Oc1ccccc1C(=O)O
REMARK SMILES IDX 5 1 10 2 6 3 9 4 7 5 8 6 4 7 2 8 3 9 1 10 11 11 12 12 13 13
REMARK H PARENT 13 14
ROOT
ATOM      1  C   UNL     1      -7.829  16.735  25.797  1.00  0.00    +0.145 A 
ATOM      2  C   UNL     1      -9.150  17.058  26.142  1.00  0.00    +0.102 A 
ATOM      3  C   UNL     1      -7.550  15.751  24.844  1.00  0.00    +0.048 A 
ATOM      4  C   UNL     1     -10.192  16.343  25.532  1.00  0.00    +0.019 A 
ATOM      5  C   UNL     1      -8.596  15.053  24.247  1.00  0.00    +0.004 A 
ATOM      6  C   UNL     1      -9.916  15.345  24.592  1.00  0.00    +0.001 A 
ENDROOT
BRANCH   1   7
ATOM      7  O   UNL     1      -6.735  17.419  26.336  1.00  0.00    -0.426 OA
BRANCH   7   8
ATOM      8  C   UNL     1      -6.032  16.656  27.262  1.00  0.00    +0.308 C 
ATOM      9  O   UNL     1      -6.509  15.923  28.119  1.00  0.00    -0.252 OA
ATOM     10  C   UNL     1      -4.562  16.845  27.031  1.00  0.00    +0.139 C 
ENDBRANCH   7   8
ENDBRANCH   1   7
BRANCH   2  11
ATOM     11  C   UNL     1      -9.438  18.140  27.120  1.00  0.00    +0.339 C 
ATOM     12  O   UNL     1     -10.025  19.185  26.910  1.00  0.00    -0.246 OA
BRANCH  11  13
ATOM     13  O   UNL     1      -8.971  17.859  28.353  1.00  0.00    -0.478 OA
ATOM     14  H   UNL     1      -9.124  18.687  28.854  1.00  0.00    +0.297 HD
ENDBRANCH  11  13
ENDBRANCH   2  11
TORSDOF 4
ENDMDL
MODEL 6
REMARK VINA RESULT:    -5.339      5.281      5.882
REMARK INTER + INTRA:          -7.144
REMARK INTER:                  -6.440
REMARK INTRA:                  -0.704
REMARK UNBOUND:                -0.712
REMARK SMILES CC(=O)Oc1ccccc1C(=O)O
REMARK SMILES IDX 5 1 10 2 6 3 9 4 7 5 8 6 4 7 2 8 3 9 1 10 11 11 12 12 13 13
REMARK H PARENT 13 14
ROOT
ATOM      1  C   UNL     1     -10.077  15.605  27.718  1.00  0.00    +0.145 A 
ATOM      2  C   UNL     1      -9.400  16.824  27.864  1.00  0.00    +0.102 A 
ATOM      3  C   UNL     1      -9.457  14.391  28.030  1.00  0.00    +0.048 A 
ATOM      4  C   UNL     1      -8.066  16.799  28.298  1.00  0.00    +0.019 A 
ATOM      5  C   UNL     1      -8.133  14.384  28.461  1.00  0.00    +0.004 A 
ATOM      6  C   UNL     1      -7.436  15.585  28.592  1.00  0.00    +0.001 A 
ENDROOT
BRANCH   1   7
ATOM      7  O   UNL     1     -11.416  15.544  27.320  1.00  0.00    -0.426 OA
BRANCH   7   8
ATOM      8  C   UNL     1     -12.278  15.295  28.382  1.00  0.00    +0.308 C 
ATOM      9  O   UNL     1     -12.366  15.938  29.420  1.00  0.00    -0.252 OA
ATOM     10  C   UNL     1     -13.130  14.106  28.047  1.00  0.00    +0.139 C 
ENDBRANCH   7   8
ENDBRANCH   1   7
BRANCH   2  11
ATOM     11  C   UNL     1     -10.084  18.113  27.578  1.00  0.00    +0.339 C 
ATOM     12  O   UNL     1      -9.896  18.850  26.628  1.00  0.00    -0.246 OA
BRANCH  11  13
ATOM     13  O   UNL     1     -11.002  18.429  28.512  1.00  0.00    -0.478 OA
ATOM     14  H   UNL     1     -10.463  18.693  29.287  1.00  0.00    +0.297 HD
ENDBRANCH  11  13
ENDBRANCH   2  11
TORSDOF 4
ENDMDL
MODEL 7
REMARK VINA RESULT:    -5.287     10.233     12.076
REMARK INTER + INTRA:          -7.081
REMARK INTER:                  -6.411
REMARK INTRA:                  -0.670
REMARK UNBOUND:                -0.712
REMARK SMILES CC(=O)Oc1ccccc1C(=O)O
REMARK SMILES IDX 5 1 10 2 6 3 9 4 7 5 8 6 4 7 2 8 3 9 1 10 11 11 12 12 13 13
REMARK H PARENT 13 14
ROOT
ATOM      1  C   UNL     1      -7.737  16.138  22.845  1.00  0.00    +0.145 A 
ATOM      2  C   UNL     1      -8.973  16.021  22.193  1.00  0.00    +0.102 A 
ATOM      3  C   UNL     1      -7.567  15.689  24.159  1.00  0.00    +0.048 A 
ATOM      4  C   UNL     1     -10.053  15.473  22.902  1.00  0.00    +0.019 A 
ATOM      5  C   UNL     1      -8.648  15.146  24.847  1.00  0.00    +0.004 A 
ATOM      6  C   UNL     1      -9.891  15.041  24.223  1.00  0.00    +0.001 A 
ENDROOT
BRANCH   1   7
ATOM      7  O   UNL     1      -6.605  16.645  22.201  1.00  0.00    -0.426 OA
BRANCH   7   8
ATOM      8  C   UNL     1      -6.288  17.934  22.614  1.00  0.00    +0.308 C 
ATOM      9  O   UNL     1      -6.971  18.939  22.462  1.00  0.00    -0.252 OA
ATOM     10  C   UNL     1      -4.965  17.907  23.319  1.00  0.00    +0.139 C 
ENDBRANCH   7   8
ENDBRANCH   1   7
BRANCH   2  11
ATOM     11  C   UNL     1      -9.132  16.456  20.780  1.00  0.00    +0.339 C 
ATOM     12  O   UNL     1      -9.237  15.744  19.799  1.00  0.00    -0.246 OA
BRANCH  11  13
ATOM     13  O   UNL     1      -9.157  17.798  20.653  1.00  0.00    -0.478 OA
ATOM     14  H   UNL     1      -8.821  18.119  21.515  1.00  0.00    +0.297 HD
ENDBRANCH  11  13
ENDBRANCH   2  11
TORSDOF 4
ENDMDL
MODEL 8
REMARK VINA RESULT:    -5.245     10.035     11.473
REMARK INTER + INTRA:          -7.030
REMARK INTER:                  -6.358
REMARK INTRA:                  -0.671
REMARK UNBOUND:                -0.712
REMARK SMILES CC(=O)Oc1ccccc1C(=O)O
REMARK SMILES IDX 5 1 10 2 6 3 9 4 7 5 8 6 4 7 2 8 3 9 1 10 11 11 12 12 13 13
REMARK H PARENT 13 14
ROOT
ATOM      1  C   UNL     1      -8.406  16.080  22.738  1.00  0.00    +0.145 A 
ATOM      2  C   UNL     1      -7.950  16.936  23.751  1.00  0.00    +0.102 A 
ATOM      3  C   UNL     1      -9.526  15.264  22.929  1.00  0.00    +0.048 A 
ATOM      4  C   UNL     1      -8.624  16.932  24.982  1.00  0.00    +0.019 A 
ATOM      5  C   UNL     1     -10.184  15.274  24.156  1.00  0.00    +0.004 A 
ATOM      6  C   UNL     1      -9.733  16.103  25.183  1.00  0.00    +0.001 A 
ENDROOT
BRANCH   1   7
ATOM      7  O   UNL     1      -7.810  16.044  21.474  1.00  0.00    -0.426 OA
BRANCH   7   8
ATOM      8  C   UNL     1      -8.544  16.738  20.518  1.00  0.00    +0.308 C 
ATOM      9  O   UNL     1      -9.036  17.852  20.640  1.00  0.00    -0.252 OA
ATOM     10  C   UNL     1      -8.622  15.908  19.271  1.00  0.00    +0.139 C 
ENDBRANCH   7   8
ENDBRANCH   1   7
BRANCH   2  11
ATOM     11  C   UNL     1      -6.788  17.835  23.521  1.00  0.00    +0.339 C 
ATOM     12  O   UNL     1      -5.679  17.742  24.012  1.00  0.00    -0.246 OA
BRANCH  11  13
ATOM     13  O   UNL     1      -7.070  18.832  22.660  1.00  0.00    -0.478 OA
ATOM     14  H   UNL     1      -6.259  18.904  22.114  1.00  0.00    +0.297 HD
ENDBRANCH  11  13
ENDBRANCH   2  11
TORSDOF 4
ENDMDL
MODEL 9
REMARK VINA RESULT:    -5.174      6.185      7.472
REMARK INTER + INTRA:          -6.945
REMARK INTER:                  -6.492
REMARK INTRA:                  -0.454
REMARK UNBOUND:                -0.712
REMARK SMILES CC(=O)Oc1ccccc1C(=O)O
REMARK SMILES IDX 5 1 10 2 6 3 9 4 7 5 8 6 4 7 2 8 3 9 1 10 11 11 12 12 13 13
REMARK H PARENT 13 14
ROOT
ATOM      1  C   UNL     1      -9.552  16.182  26.213  1.00  0.00    +0.145 A 
ATOM      2  C   UNL     1      -8.972  17.431  25.951  1.00  0.00    +0.102 A 
ATOM      3  C   UNL     1      -9.500  15.148  25.273  1.00  0.00    +0.048 A 
ATOM      4  C   UNL     1      -8.365  17.637  24.702  1.00  0.00    +0.019 A 
ATOM      5  C   UNL     1      -8.893  15.368  24.039  1.00  0.00    +0.004 A 
ATOM      6  C   UNL     1      -8.329  16.611  23.751  1.00  0.00    +0.001 A 
ENDROOT
BRANCH   1   7
ATOM      7  O   UNL     1     -10.149  15.886  27.442  1.00  0.00    -0.426 OA
BRANCH   7   8
ATOM      8  C   UNL     1      -9.595  14.763  28.048  1.00  0.00    +0.308 C 
ATOM      9  O   UNL     1     -10.066  13.633  28.064  1.00  0.00    -0.252 OA
ATOM     10  C   UNL     1      -8.284  15.145  28.670  1.00  0.00    +0.139 C 
ENDBRANCH   7   8
ENDBRANCH   1   7
BRANCH   2  11
ATOM     11  C   UNL     1      -8.989  18.508  26.976  1.00  0.00    +0.339 C 
ATOM     12  O   UNL     1      -8.028  19.082  27.455  1.00  0.00    -0.246 OA
BRANCH  11  13
ATOM     13  O   UNL     1     -10.238  18.831  27.365  1.00  0.00    -0.478 OA
ATOM     14  H   UNL     1     -10.384  19.714  26.964  1.00  0.00    +0.297 HD
ENDBRANCH  11  13
ENDBRANCH   2  11
TORSDOF 4
ENDMDL
