REMARK VINA RESULT:    -5.367      1.681      3.787
REMARK INTER + INTRA:          -5.367
REMARK INTER:                  -5.367
REMARK INTRA:                   0.000
REMARK UNBOUND:                 0.000
REMARK SMILES Cn1c(=O)c2c(ncn2C)n(C)c1=O
REMARK SMILES IDX 10 1 9 2 8 3 7 4 6 5 5 6 3 7 4 8 2 9 1 10 13 11 14 12 11 13
REMARK SMILES IDX 12 14
REMARK H PARENT
ROOT
ATOM      1  C   UNL     1      -8.537  16.112  29.713  1.00  0.00     0.151 C 
ATOM      2  N   UNL     1      -9.762  15.804  30.403  1.00  0.00    -0.328 N 
ATOM      3  C   UNL     1     -10.925  15.359  29.829  1.00  0.00     0.202 A 
ATOM      4  N   UNL     1     -11.869  15.168  30.728  1.00  0.00    -0.218 NA
ATOM      5  C   UNL     1     -11.283  15.503  31.911  1.00  0.00     0.167 A 
ATOM      6  C   UNL     1      -9.991  15.898  31.746  1.00  0.00     0.152 A 
ATOM      7  C   UNL     1      -9.155  16.299  32.822  1.00  0.00     0.282 C 
ATOM      8  O   UNL     1      -7.991  16.654  32.663  1.00  0.00    -0.267 OA
ATOM      9  N   UNL     1      -9.803  16.245  34.060  1.00  0.00    -0.261 N 
ATOM     10  C   UNL     1      -9.055  16.632  35.241  1.00  0.00     0.159 C 
ATOM     11  C   UNL     1     -11.138  15.843  34.272  1.00  0.00     0.332 C 
ATOM     12  O   UNL     1     -11.623  15.829  35.407  1.00  0.00    -0.247 OA
ATOM     13  N   UNL     1     -11.877  15.467  33.150  1.00  0.00    -0.279 N 
ATOM     14  C   UNL     1     -13.257  15.040  33.282  1.00  0.00     0.157 C 
ENDROOT
TORSDOF 0
END
