REMARK VINA RESULT:    -5.419      1.737      3.531
REMARK INTER + INTRA:          -5.419
REMARK INTER:                  -5.419
REMARK INTRA:                   0.000
REMARK UNBOUND:                 0.000
REMARK SMILES Cn1c(=O)c2c(ncn2C)n(C)c1=O
REMARK SMILES IDX 10 1 9 2 8 3 7 4 6 5 5 6 3 7 4 8 2 9 1 10 13 11 14 12 11 13
REMARK SMILES IDX 12 14
REMARK H PARENT
ROOT
ATOM      1  C   UNL     1      -8.559  16.508  30.754  1.00  0.00     0.151 C 
ATOM      2  N   UNL     1      -9.194  16.241  32.018  1.00  0.00    -0.328 N 
ATOM      3  C   UNL     1      -8.656  16.468  33.258  1.00  0.00     0.202 A 
ATOM      4  N   UNL     1      -9.486  16.119  34.220  1.00  0.00    -0.218 NA
ATOM      5  C   UNL     1     -10.587  15.655  33.566  1.00  0.00     0.167 A 
ATOM      6  C   UNL     1     -10.439  15.716  32.214  1.00  0.00     0.152 A 
ATOM      7  C   UNL     1     -11.443  15.294  31.300  1.00  0.00     0.282 C 
ATOM      8  O   UNL     1     -11.300  15.353  30.083  1.00  0.00    -0.267 OA
ATOM      9  N   UNL     1     -12.589  14.811  31.940  1.00  0.00    -0.261 N 
ATOM     10  C   UNL     1     -13.688  14.348  31.115  1.00  0.00     0.159 C 
ATOM     11  C   UNL     1     -12.779  14.731  33.335  1.00  0.00     0.332 C 
ATOM     12  O   UNL     1     -13.831  14.289  33.807  1.00  0.00    -0.247 OA
ATOM     13  N   UNL     1     -11.735  15.172  34.148  1.00  0.00    -0.279 N 
ATOM     14  C   UNL     1     -11.850  15.123  35.594  1.00  0.00     0.157 C 
ENDROOT
TORSDOF 0
END
