MODEL 1
REMARK VINA RESULT:    -5.435      0.000      0.000
REMARK INTER + INTRA:          -5.435
REMARK INTER:                  -5.435
REMARK INTRA:                   0.000
REMARK UNBOUND:                 0.000
REMARK SMILES Cn1c(=O)c2c(ncn2C)n(C)c1=O
REMARK SMILES IDX 10 1 9 2 8 3 7 4 6 5 5 6 3 7 4 8 2 9 1 10 13 11 14 12 11 13
REMARK SMILES IDX 12 14
REMARK H PARENT
ROOT
ATOM      1  C   UNL     1      -9.036  16.285  36.341  1.00  0.00    +0.151 C 
ATOM      2  N   UNL     1     -10.209  15.882  35.610  1.00  0.00    -0.328 N 
ATOM      3  C   UNL     1     -11.399  15.470  36.152  1.00  0.00    +0.202 A 
ATOM      4  N   UNL     1     -12.280  15.169  35.220  1.00  0.00    -0.218 NA
ATOM      5  C   UNL     1     -11.625  15.399  34.048  1.00  0.00    +0.167 A 
ATOM      6  C   UNL     1     -10.352  15.837  34.253  1.00  0.00    +0.152 A 
ATOM      7  C   UNL     1      -9.456  16.151  33.196  1.00  0.00    +0.282 C 
ATOM      8  O   UNL     1      -8.310  16.545  33.392  1.00  0.00    -0.267 OA
ATOM      9  N   UNL     1     -10.022  15.959  31.932  1.00  0.00    -0.261 N 
ATOM     10  C   UNL     1      -9.206  16.244  30.767  1.00  0.00    +0.159 C 
ATOM     11  C   UNL     1     -11.334  15.506  31.678  1.00  0.00    +0.332 C 
ATOM     12  O   UNL     1     -11.744  15.368  30.522  1.00  0.00    -0.247 OA
ATOM     13  N   UNL     1     -12.137  15.226  32.784  1.00  0.00    -0.279 N 
ATOM     14  C   UNL     1     -13.498  14.756  32.610  1.00  0.00    +0.157 C 
ENDROOT
TORSDOF 0
ENDMDL
MODEL 2
REMARK VINA RESULT:    -5.430      7.109      9.470
REMARK INTER + INTRA:          -5.430
REMARK INTER:                  -5.430
REMARK INTRA:                   0.000
REMARK UNBOUND:                 0.000
REMARK SMILES Cn1c(=O)c2c(ncn2C)n(C)c1=O
REMARK SMILES IDX 10 1 9 2 8 3 7 4 6 5 5 6 3 7 4 8 2 9 1 10 13 11 14 12 11 13
REMARK SMILES IDX 12 14
REMARK H PARENT
ROOT
ATOM      1  C   UNL     1      -8.378  15.865  22.234  1.00  0.00    +0.151 C 
ATOM      2  N   UNL     1      -8.928  16.218  23.516  1.00  0.00    -0.328 N 
ATOM      3  C   UNL     1     -10.135  15.808  24.020  1.00  0.00    +0.202 A 
ATOM      4  N   UNL     1     -10.355  16.303  25.222  1.00  0.00    -0.218 NA
ATOM      5  C   UNL     1      -9.248  17.052  25.487  1.00  0.00    +0.167 A 
ATOM      6  C   UNL     1      -8.354  17.021  24.460  1.00  0.00    +0.152 A 
ATOM      7  C   UNL     1      -7.116  17.718  24.484  1.00  0.00    +0.282 C 
ATOM      8  O   UNL     1      -6.317  17.683  23.553  1.00  0.00    -0.267 OA
ATOM      9  N   UNL     1      -6.921  18.434  25.669  1.00  0.00    -0.261 N 
ATOM     10  C   UNL     1      -5.692  19.190  25.816  1.00  0.00    +0.159 C 
ATOM     11  C   UNL     1      -7.822  18.492  26.753  1.00  0.00    +0.332 C 
ATOM     12  O   UNL     1      -7.559  19.155  27.761  1.00  0.00    -0.247 OA
ATOM     13  N   UNL     1      -9.011  17.772  26.633  1.00  0.00    -0.279 N 
ATOM     14  C   UNL     1      -9.991  17.779  27.703  1.00  0.00    +0.157 C 
ENDROOT
TORSDOF 0
ENDMDL
MODEL 3
REMARK VINA RESULT:    -5.419      1.737      3.531
REMARK INTER + INTRA:          -5.419
REMARK INTER:                  -5.419
REMARK INTRA:                   0.000
REMARK UNBOUND:                 0.000
REMARK SMILES Cn1c(=O)c2c(ncn2C)n(C)c1=O
REMARK SMILES IDX 10 1 9 2 8 3 7 4 6 5 5 6 3 7 4 8 2 9 1 10 13 11 14 12 11 13
REMARK SMILES IDX 12 14
REMARK H PARENT
ROOT
ATOM      1  C   UNL     1      -8.559  16.508  30.754  1.00  0.00    +0.151 C 
ATOM      2  N   UNL     1      -9.194  16.241  32.018  1.00  0.00    -0.328 N 
ATOM      3  C   UNL     1      -8.656  16.468  33.258  1.00  0.00    +0.202 A 
ATOM      4  N   UNL     1      -9.486  16.119  34.220  1.00  0.00    -0.218 NA
ATOM      5  C   UNL     1     -10.587  15.655  33.566  1.00  0.00    +0.167 A 
ATOM      6  C   UNL     1     -10.439  15.716  32.214  1.00  0.00    +0.152 A 
ATOM      7  C   UNL     1     -11.443  15.294  31.300  1.00  0.00    +0.282 C 
ATOM      8  O   UNL     1     -11.300  15.353  30.083  1.00  0.00    -0.267 OA
ATOM      9  N   UNL     1     -12.589  14.811  31.940  1.00  0.00    -0.261 N 
ATOM     10  C   UNL     1     -13.688  14.348  31.115  1.00  0.00    +0.159 C 
ATOM     11  C   UNL     1     -12.779  14.731  33.335  1.00  0.00    +0.332 C 
ATOM     12  O   UNL     1     -13.831  14.289  33.807  1.00  0.00    -0.247 OA
ATOM     13  N   UNL     1     -11.735  15.172  34.148  1.00  0.00    -0.279 N 
ATOM     14  C   UNL     1     -11.850  15.123  35.594  1.00  0.00    +0.157 C 
ENDROOT
TORSDOF 0
ENDMDL
MODEL 4
REMARK VINA RESULT:    -5.404      7.088     10.097
REMARK INTER + INTRA:          -5.404
REMARK INTER:                  -5.404
REMARK INTRA:                   0.000
REMARK UNBOUND:                 0.000
REMARK SMILES Cn1c(=O)c2c(ncn2C)n(C)c1=O
REMARK SMILES IDX 10 1 9 2 8 3 7 4 6 5 5 6 3 7 4 8 2 9 1 10 13 11 14 12 11 13
REMARK SMILES IDX 12 14
REMARK H PARENT
ROOT
ATOM      1  C   UNL     1      -9.332  15.748  22.574  1.00  0.00    +0.151 C 
ATOM      2  N   UNL     1      -8.333  16.587  23.184  1.00  0.00    -0.328 N 
ATOM      3  C   UNL     1      -7.147  16.975  22.619  1.00  0.00    +0.202 A 
ATOM      4  N   UNL     1      -6.449  17.744  23.431  1.00  0.00    -0.218 NA
ATOM      5  C   UNL     1      -7.222  17.845  24.548  1.00  0.00    +0.167 A 
ATOM      6  C   UNL     1      -8.384  17.146  24.429  1.00  0.00    +0.152 A 
ATOM      7  C   UNL     1      -9.367  17.088  25.453  1.00  0.00    +0.282 C 
ATOM      8  O   UNL     1     -10.412  16.455  25.336  1.00  0.00    -0.267 OA
ATOM      9  N   UNL     1      -9.009  17.821  26.589  1.00  0.00    -0.261 N 
ATOM     10  C   UNL     1      -9.931  17.841  27.708  1.00  0.00    +0.159 C 
ATOM     11  C   UNL     1      -7.816  18.556  26.751  1.00  0.00    +0.332 C 
ATOM     12  O   UNL     1      -7.589  19.174  27.795  1.00  0.00    -0.247 OA
ATOM     13  N   UNL     1      -6.914  18.551  25.686  1.00  0.00    -0.279 N 
ATOM     14  C   UNL     1      -5.664  19.282  25.772  1.00  0.00    +0.157 C 
ENDROOT
TORSDOF 0
ENDMDL
MODEL 5
REMARK VINA RESULT:    -5.367      1.681      3.787
REMARK INTER + INTRA:          -5.367
REMARK INTER:                  -5.367
REMARK INTRA:                   0.000
REMARK UNBOUND:                 0.000
REMARK SMILES Cn1c(=O)c2c(ncn2C)n(C)c1=O
REMARK SMILES IDX 10 1 9 2 8 3 7 4 6 5 5 6 3 7 4 8 2 9 1 10 13 11 14 12 11 13
REMARK SMILES IDX 12 14
REMARK H PARENT
ROOT
ATOM      1  C   UNL     1      -8.537  16.112  29.713  1.00  0.00    +0.151 C 
ATOM      2  N   UNL     1      -9.762  15.804  30.403  1.00  0.00    -0.328 N 
ATOM      3  C   UNL     1     -10.925  15.359  29.829  1.00  0.00    +0.202 A 
ATOM      4  N   UNL     1     -11.869  15.168  30.728  1.00  0.00    -0.218 NA
ATOM      5  C   UNL     1     -11.283  15.503  31.911  1.00  0.00    +0.167 A 
ATOM      6  C   UNL     1      -9.991  15.898  31.746  1.00  0.00    +0.152 A 
ATOM      7  C   UNL     1      -9.155  16.299  32.822  1.00  0.00    +0.282 C 
ATOM      8  O   UNL     1      -7.991  16.654  32.663  1.00  0.00    -0.267 OA
ATOM      9  N   UNL     1      -9.803  16.245  34.060  1.00  0.00    -0.261 N 
ATOM     10  C   UNL     1      -9.055  16.632  35.241  1.00  0.00    +0.159 C 
ATOM     11  C   UNL     1     -11.138  15.843  34.272  1.00  0.00    +0.332 C 
ATOM     12  O   UNL     1     -11.623  15.829  35.407  1.00  0.00    -0.247 OA
ATOM     13  N   UNL     1     -11.877  15.467  33.150  1.00  0.00    -0.279 N 
ATOM     14  C   UNL     1     -13.257  15.040  33.282  1.00  0.00    +0.157 C 
ENDROOT
TORSDOF 0
ENDMDL
MODEL 6
REMARK VINA RESULT:    -5.360      1.394      2.988
REMARK INTER + INTRA:          -5.360
REMARK INTER:                  -5.360
REMARK INTRA:                   0.000
REMARK UNBOUND:                 0.000
REMARK SMILES Cn1c(=O)c2c(ncn2C)n(C)c1=O
REMARK SMILES IDX 10 1 9 2 8 3 7 4 6 5 5 6 3 7 4 8 2 9 1 10 13 11 14 12 11 13
REMARK SMILES IDX 12 14
REMARK H PARENT
ROOT
ATOM      1  C   UNL     1     -11.720  15.187  36.724  1.00  0.00    +0.151 C 
ATOM      2  N   UNL     1     -10.866  15.593  35.638  1.00  0.00    -0.328 N 
ATOM      3  C   UNL     1      -9.633  16.180  35.753  1.00  0.00    +0.202 A 
ATOM      4  N   UNL     1      -9.102  16.433  34.574  1.00  0.00    -0.218 NA
ATOM      5  C   UNL     1     -10.031  15.990  33.682  1.00  0.00    +0.167 A 
ATOM      6  C   UNL     1     -11.126  15.470  34.303  1.00  0.00    +0.152 A 
ATOM      7  C   UNL     1     -12.240  14.937  33.601  1.00  0.00    +0.282 C 
ATOM      8  O   UNL     1     -13.222  14.470  34.170  1.00  0.00    -0.267 OA
ATOM      9  N   UNL     1     -12.090  15.009  32.212  1.00  0.00    -0.261 N 
ATOM     10  C   UNL     1     -13.163  14.498  31.381  1.00  0.00    +0.159 C 
ATOM     11  C   UNL     1     -10.974  15.541  31.532  1.00  0.00    +0.332 C 
ATOM     12  O   UNL     1     -10.934  15.560  30.299  1.00  0.00    -0.247 OA
ATOM     13  N   UNL     1      -9.930  16.038  32.312  1.00  0.00    -0.279 N 
ATOM     14  C   UNL     1      -8.746  16.603  31.691  1.00  0.00    +0.157 C 
ENDROOT
TORSDOF 0
ENDMDL
MODEL 7
REMARK VINA RESULT:    -5.338      8.473     10.561
REMARK INTER + INTRA:          -5.338
REMARK INTER:                  -5.338
REMARK INTRA:                   0.000
REMARK UNBOUND:                 0.000
REMARK SMILES Cn1c(=O)c2c(ncn2C)n(C)c1=O
REMARK SMILES IDX 10 1 9 2 8 3 7 4 6 5 5 6 3 7 4 8 2 9 1 10 13 11 14 12 11 13
REMARK SMILES IDX 12 14
REMARK H PARENT
ROOT
ATOM      1  C   UNL     1      -5.696  18.983  25.241  1.00  0.00    +0.151 C 
ATOM      2  N   UNL     1      -6.488  18.511  24.134  1.00  0.00    -0.328 N 
ATOM      3  C   UNL     1      -6.427  18.967  22.843  1.00  0.00    +0.202 A 
ATOM      4  N   UNL     1      -7.279  18.333  22.063  1.00  0.00    -0.218 NA
ATOM      5  C   UNL     1      -7.900  17.446  22.889  1.00  0.00    +0.167 A 
ATOM      6  C   UNL     1      -7.437  17.531  24.167  1.00  0.00    +0.152 A 
ATOM      7  C   UNL     1      -7.919  16.714  25.226  1.00  0.00    +0.282 C 
ATOM      8  O   UNL     1      -7.495  16.798  26.374  1.00  0.00    -0.267 OA
ATOM      9  N   UNL     1      -8.915  15.823  24.812  1.00  0.00    -0.261 N 
ATOM     10  C   UNL     1      -9.489  14.933  25.802  1.00  0.00    +0.159 C 
ATOM     11  C   UNL     1      -9.420  15.706  23.500  1.00  0.00    +0.332 C 
ATOM     12  O   UNL     1     -10.303  14.886  23.232  1.00  0.00    -0.247 OA
ATOM     13  N   UNL     1      -8.881  16.553  22.531  1.00  0.00    -0.279 N 
ATOM     14  C   UNL     1      -9.346  16.496  21.158  1.00  0.00    +0.157 C 
ENDROOT
TORSDOF 0
ENDMDL
MODEL 8
REMARK VINA RESULT:    -5.325      6.824      9.270
REMARK INTER + INTRA:          -5.325
REMARK INTER:                  -5.325
REMARK INTRA:                   0.000
REMARK UNBOUND:                 0.000
REMARK SMILES Cn1c(=O)c2c(ncn2C)n(C)c1=O
REMARK SMILES IDX 10 1 9 2 8 3 7 4 6 5 5 6 3 7 4 8 2 9 1 10 13 11 14 12 11 13
REMARK SMILES IDX 12 14
REMARK H PARENT
ROOT
ATOM      1  C   UNL     1      -5.333  19.602  25.838  1.00  0.00    +0.151 C 
ATOM      2  N   UNL     1      -6.173  18.684  25.113  1.00  0.00    -0.328 N 
ATOM      3  C   UNL     1      -5.927  18.175  23.864  1.00  0.00    +0.202 A 
ATOM      4  N   UNL     1      -6.885  17.359  23.474  1.00  0.00    -0.218 NA
ATOM      5  C   UNL     1      -7.767  17.352  24.512  1.00  0.00    +0.167 A 
ATOM      6  C   UNL     1      -7.359  18.154  25.533  1.00  0.00    +0.152 A 
ATOM      7  C   UNL     1      -8.098  18.323  26.735  1.00  0.00    +0.282 C 
ATOM      8  O   UNL     1      -7.722  19.049  27.650  1.00  0.00    -0.267 OA
ATOM      9  N   UNL     1      -9.283  17.580  26.750  1.00  0.00    -0.261 N 
ATOM     10  C   UNL     1     -10.129  17.667  27.925  1.00  0.00    +0.159 C 
ATOM     11  C   UNL     1      -9.740  16.739  25.714  1.00  0.00    +0.332 C 
ATOM     12  O   UNL     1     -10.803  16.121  25.822  1.00  0.00    -0.247 OA
ATOM     13  N   UNL     1      -8.942  16.640  24.575  1.00  0.00    -0.279 N 
ATOM     14  C   UNL     1      -9.340  15.796  23.463  1.00  0.00    +0.157 C 
ENDROOT
TORSDOF 0
ENDMDL
MODEL 9
REMARK VINA RESULT:    -5.318      7.081      8.846
REMARK INTER + INTRA:          -5.318
REMARK INTER:                  -5.318
REMARK INTRA:                   0.000
REMARK UNBOUND:                 0.000
REMARK SMILES Cn1c(=O)c2c(ncn2C)n(C)c1=O
REMARK SMILES IDX 10 1 9 2 8 3 7 4 6 5 5 6 3 7 4 8 2 9 1 10 13 11 14 12 11 13
REMARK SMILES IDX 12 14
REMARK H PARENT
ROOT
ATOM      1  C   UNL     1      -4.896  19.163  25.427  1.00  0.00    +0.151 C 
ATOM      2  N   UNL     1      -6.115  18.899  26.146  1.00  0.00    -0.328 N 
ATOM      3  C   UNL     1      -6.410  19.312  27.419  1.00  0.00    +0.202 A 
ATOM      4  N   UNL     1      -7.607  18.911  27.796  1.00  0.00    -0.218 NA
ATOM      5  C   UNL     1      -8.086  18.220  26.724  1.00  0.00    +0.167 A 
ATOM      6  C   UNL     1      -7.195  18.194  25.695  1.00  0.00    +0.152 A 
ATOM      7  C   UNL     1      -7.449  17.540  24.460  1.00  0.00    +0.282 C 
ATOM      8  O   UNL     1      -6.639  17.522  23.539  1.00  0.00    -0.267 OA
ATOM      9  N   UNL     1      -8.707  16.929  24.420  1.00  0.00    -0.261 N 
ATOM     10  C   UNL     1      -9.086  16.225  23.210  1.00  0.00    +0.159 C 
ATOM     11  C   UNL     1      -9.656  16.933  25.463  1.00  0.00    +0.332 C 
ATOM     12  O   UNL     1     -10.743  16.363  25.333  1.00  0.00    -0.247 OA
ATOM     13  N   UNL     1      -9.312  17.604  26.637  1.00  0.00    -0.279 N 
ATOM     14  C   UNL     1     -10.232  17.655  27.757  1.00  0.00    +0.157 C 
ENDROOT
TORSDOF 0
ENDMDL
