REMARK VINA RESULT:    -5.435      0.000      0.000
REMARK INTER + INTRA:          -5.435
REMARK INTER:                  -5.435
REMARK INTRA:                   0.000
REMARK UNBOUND:                 0.000
REMARK SMILES Cn1c(=O)c2c(ncn2C)n(C)c1=O
REMARK SMILES IDX 10 1 9 2 8 3 7 4 6 5 5 6 3 7 4 8 2 9 1 10 13 11 14 12 11 13
REMARK SMILES IDX 12 14
REMARK H PARENT
ROOT
ATOM      1  C   UNL     1      -9.036  16.285  36.341  1.00  0.00     0.151 C 
ATOM      2  N   UNL     1     -10.209  15.882  35.610  1.00  0.00    -0.328 N 
ATOM      3  C   UNL     1     -11.399  15.470  36.152  1.00  0.00     0.202 A 
ATOM      4  N   UNL     1     -12.280  15.169  35.220  1.00  0.00    -0.218 NA
ATOM      5  C   UNL     1     -11.625  15.399  34.048  1.00  0.00     0.167 A 
ATOM      6  C   UNL     1     -10.352  15.837  34.253  1.00  0.00     0.152 A 
ATOM      7  C   UNL     1      -9.456  16.151  33.196  1.00  0.00     0.282 C 
ATOM      8  O   UNL     1      -8.310  16.545  33.392  1.00  0.00    -0.267 OA
ATOM      9  N   UNL     1     -10.022  15.959  31.932  1.00  0.00    -0.261 N 
ATOM     10  C   UNL     1      -9.206  16.244  30.767  1.00  0.00     0.159 C 
ATOM     11  C   UNL     1     -11.334  15.506  31.678  1.00  0.00     0.332 C 
ATOM     12  O   UNL     1     -11.744  15.368  30.522  1.00  0.00    -0.247 OA
ATOM     13  N   UNL     1     -12.137  15.226  32.784  1.00  0.00    -0.279 N 
ATOM     14  C   UNL     1     -13.498  14.756  32.610  1.00  0.00     0.157 C 
ENDROOT
TORSDOF 0
END
