REMARK VINA RESULT:    -9.908      1.631      4.911
REMARK INTER + INTRA:         -21.488
REMARK INTER:                 -18.453
REMARK INTRA:                  -3.035
REMARK UNBOUND:                -2.892
REMARK SMILES O=C1N(Cc2ccc3ccccc3c2)[C@H](Cc2ccccc2)[C@H](O)[C@@H](O)[C@@H](Cc2ccccc2)N1Cc1ccc2ccccc2c1
REMARK SMILES IDX 2 1 1 2 3 3 4 4 5 5 6 6 14 7 7 8 13 9 8 10 12 11 9 12 11 13
REMARK SMILES IDX 10 14 15 15 23 16 24 18 16 20 17 21 18 22 22 23 19 24 21 25
REMARK SMILES IDX 20 26 35 27 27 28 25 29 26 31 28 33 29 34 30 35 34 36 31 37
REMARK SMILES IDX 33 38 32 39 36 40 37 41 46 42 38 43 45 44 39 45 44 46 40 47
REMARK SMILES IDX 43 48 41 49 42 50
REMARK H PARENT 24 19 26 32
REMARK Flexibility Score:   80.900
ROOT
ATOM      1  C   UNL     1      -9.945  17.646  28.256  1.00  0.00     0.321 C 
ATOM      2  O   UNL     1     -10.465  18.679  27.824  1.00  0.00    -0.248 OA
ATOM      3  N   UNL     1     -10.562  16.900  29.258  1.00  0.00    -0.314 N 
ATOM      4  C   UNL     1     -12.034  16.854  29.195  1.00  0.00     0.157 C 
ATOM      5  C   UNL     1     -12.609  15.457  29.305  1.00  0.00    -0.028 A 
ATOM      6  C   UNL     1     -12.997  14.759  28.156  1.00  0.00     0.006 A 
ATOM      7  C   UNL     1     -12.764  14.837  30.554  1.00  0.00     0.014 A 
ATOM      8  C   UNL     1     -13.549  13.479  28.254  1.00  0.00     0.009 A 
ATOM      9  C   UNL     1     -13.319  13.552  30.669  1.00  0.00    -0.018 A 
ATOM     10  C   UNL     1     -13.720  12.865  29.503  1.00  0.00    -0.018 A 
ATOM     11  C   UNL     1     -13.483  12.937  31.921  1.00  0.00     0.009 A 
ATOM     12  C   UNL     1     -14.277  11.581  29.620  1.00  0.00     0.009 A 
ATOM     13  C   UNL     1     -14.038  11.662  32.021  1.00  0.00     0.001 A 
ATOM     14  C   UNL     1     -14.435  10.984  30.871  1.00  0.00     0.001 A 
ATOM     15  C   UNL     1      -9.914  15.884  30.148  1.00  0.00     0.123 C 
ATOM     16  C   UNL     1      -9.378  14.634  29.410  1.00  0.00     0.168 CG
ATOM     17  G   UNL     1      -8.160  14.935  28.531  1.00  0.00     0.000 G0
ATOM     18  O   UNL     1      -8.992  13.610  30.349  1.00  0.00    -0.388 OA
ATOM     19  H   UNL     1      -9.715  13.544  31.000  1.00  0.00     0.211 HD
ATOM     20  C   UNL     1      -8.872  16.499  31.128  1.00  0.00     0.063 C 
ATOM     21  C   UNL     1      -9.199  16.333  32.598  1.00  0.00    -0.046 A 
ATOM     22  C   UNL     1      -8.403  16.947  33.575  1.00  0.00     0.004 A 
ATOM     23  C   UNL     1     -10.321  15.597  33.002  1.00  0.00     0.004 A 
ATOM     24  C   UNL     1      -8.707  16.804  34.930  1.00  0.00     0.000 A 
ATOM     25  C   UNL     1     -10.623  15.454  34.358  1.00  0.00     0.000 A 
ATOM     26  C   UNL     1      -9.815  16.055  35.320  1.00  0.00     0.000 A 
ATOM     27  N   UNL     1      -8.742  17.210  27.729  1.00  0.00    -0.314 N 
ATOM     28  C   UNL     1      -8.514  15.809  27.309  1.00  0.00     0.123 C 
ATOM     29  C   UNL     1      -8.147  14.910  28.503  1.00  0.00     0.168 CG
ATOM     30  G   UNL     1      -9.364  14.645  29.394  1.00  0.00     0.000 G0
ATOM     31  O   UNL     1      -7.589  13.654  28.087  1.00  0.00    -0.388 OA
ATOM     32  H   UNL     1      -8.355  13.051  28.005  1.00  0.00     0.211 HD
ATOM     33  C   UNL     1      -9.622  15.204  26.413  1.00  0.00     0.063 C 
ATOM     34  C   UNL     1      -9.261  15.209  24.943  1.00  0.00    -0.046 A 
ATOM     35  C   UNL     1     -10.190  15.637  23.986  1.00  0.00     0.004 A 
ATOM     36  C   UNL     1      -8.002  14.762  24.519  1.00  0.00     0.004 A 
ATOM     37  C   UNL     1      -9.865  15.618  22.628  1.00  0.00     0.000 A 
ATOM     38  C   UNL     1      -7.680  14.745  23.162  1.00  0.00     0.000 A 
ATOM     39  C   UNL     1      -8.611  15.172  22.217  1.00  0.00     0.000 A 
ATOM     40  C   UNL     1      -7.654  18.196  27.655  1.00  0.00     0.157 C 
ATOM     41  C   UNL     1      -6.770  17.997  26.442  1.00  0.00    -0.028 A 
ATOM     42  C   UNL     1      -7.262  18.238  25.151  1.00  0.00     0.014 A 
ATOM     43  C   UNL     1      -5.439  17.588  26.587  1.00  0.00     0.006 A 
ATOM     44  C   UNL     1      -6.443  18.097  24.019  1.00  0.00    -0.018 A 
ATOM     45  C   UNL     1      -4.612  17.439  25.471  1.00  0.00     0.009 A 
ATOM     46  C   UNL     1      -6.931  18.356  22.727  1.00  0.00     0.009 A 
ATOM     47  C   UNL     1      -5.099  17.693  24.181  1.00  0.00    -0.018 A 
ATOM     48  C   UNL     1      -6.104  18.215  21.611  1.00  0.00     0.001 A 
ATOM     49  C   UNL     1      -4.281  17.555  23.048  1.00  0.00     0.009 A 
ATOM     50  C   UNL     1      -4.781  17.814  21.771  1.00  0.00     0.001 A 
ENDROOT
TORSDOF 10
END
