REMARK SMILES CC(=O)Oc1ccccc1C(=O)O
REMARK SMILES IDX 5 1 10 2 6 3 9 4 7 5 8 6 4 7 2 8 3 9 1 10 11 11 12 12 13 13
REMARK H PARENT 13 14
ROOT
ATOM      1  C   UNL     1      -0.111   0.637   0.399  1.00  0.00    +0.145 A 
ATOM      2  C   UNL     1      -0.776  -0.532   0.002  1.00  0.00    +0.102 A 
ATOM      3  C   UNL     1      -0.778   1.865   0.459  1.00  0.00    +0.048 A 
ATOM      4  C   UNL     1      -2.126  -0.438  -0.371  1.00  0.00    +0.019 A 
ATOM      5  C   UNL     1      -2.118   1.940   0.087  1.00  0.00    +0.004 A 
ATOM      6  C   UNL     1      -2.791   0.792  -0.331  1.00  0.00    +0.001 A 
ENDROOT
BRANCH   1   7
ATOM      7  O   UNL     1       1.224   0.625   0.814  1.00  0.00    -0.426 OA
BRANCH   7   8
ATOM      8  C   UNL     1       2.115   0.663  -0.253  1.00  0.00    +0.308 C 
ATOM      9  O   UNL     1       1.833   0.794  -1.437  1.00  0.00    -0.252 OA
ATOM     10  C   UNL     1       3.513   0.547   0.278  1.00  0.00    +0.139 C 
ENDBRANCH   7   8
ENDBRANCH   1   7
BRANCH   2  11
ATOM     11  C   UNL     1      -0.071  -1.841  -0.011  1.00  0.00    +0.339 C 
ATOM     12  O   UNL     1       1.065  -2.068   0.362  1.00  0.00    -0.246 OA
BRANCH  11  13
ATOM     13  O   UNL     1      -0.839  -2.836  -0.497  1.00  0.00    -0.478 OA
ATOM     14  H   UNL     1      -0.252  -3.620  -0.463  1.00  0.00    +0.297 HD
ENDBRANCH  11  13
ENDBRANCH   2  11
TORSDOF 4
