REMARK SMILES Cn1c(=O)c2c(ncn2C)n(C)c1=O
REMARK SMILES IDX 10 1 9 2 8 3 7 4 6 5 5 6 3 7 4 8 2 9 1 10 13 11 14 12 11 13
REMARK SMILES IDX 12 14
REMARK H PARENT
ROOT
ATOM      1  C   UNL     1       3.328  -0.079  -0.153  1.00  0.00    +0.151 C 
ATOM      2  N   UNL     1       2.036  -0.713  -0.110  1.00  0.00    -0.328 N 
ATOM      3  C   UNL     1       1.795  -2.062  -0.132  1.00  0.00    +0.202 A 
ATOM      4  N   UNL     1       0.505  -2.327  -0.080  1.00  0.00    -0.218 NA
ATOM      5  C   UNL     1      -0.090  -1.103  -0.023  1.00  0.00    +0.167 A 
ATOM      6  C   UNL     1       0.822  -0.092  -0.040  1.00  0.00    +0.152 A 
ATOM      7  C   UNL     1       0.463   1.282   0.011  1.00  0.00    +0.282 C 
ATOM      8  O   UNL     1       1.293   2.186  -0.005  1.00  0.00    -0.267 OA
ATOM      9  N   UNL     1      -0.920   1.478   0.078  1.00  0.00    -0.261 N 
ATOM     10  C   UNL     1      -1.415   2.840   0.134  1.00  0.00    +0.159 C 
ATOM     11  C   UNL     1      -1.895   0.459   0.097  1.00  0.00    +0.332 C 
ATOM     12  O   UNL     1      -3.097   0.733   0.158  1.00  0.00    -0.247 OA
ATOM     13  N   UNL     1      -1.441  -0.859   0.044  1.00  0.00    -0.279 N 
ATOM     14  C   UNL     1      -2.379  -1.966   0.059  1.00  0.00    +0.157 C 
ENDROOT
TORSDOF 0
