REMARK VINA RESULT:    -5.363      1.567      3.280
REMARK INTER + INTRA:          -7.173
REMARK INTER:                  -6.808
REMARK INTRA:                  -0.365
REMARK UNBOUND:                -0.712
REMARK SMILES CC(=O)Oc1ccccc1C(=O)O
REMARK SMILES IDX 5 1 10 2 6 3 9 4 7 5 8 6 4 7 2 8 3 9 1 10 11 11 12 12 13 13
REMARK H PARENT 13 14
ROOT
ATOM      1  C   UNL     1     -10.419  16.133  34.459  1.00  0.00     0.145 A 
ATOM      2  C   UNL     1     -10.909  15.461  33.330  1.00  0.00     0.102 A 
ATOM      3  C   UNL     1      -9.161  16.745  34.448  1.00  0.00     0.048 A 
ATOM      4  C   UNL     1     -10.091  15.384  32.192  1.00  0.00     0.019 A 
ATOM      5  C   UNL     1      -8.364  16.661  33.309  1.00  0.00     0.004 A 
ATOM      6  C   UNL     1      -8.825  15.978  32.184  1.00  0.00     0.001 A 
ATOM      7  O   UNL     1     -11.180  16.280  35.622  1.00  0.00    -0.426 OA
ATOM      8  C   UNL     1     -10.832  15.363  36.608  1.00  0.00     0.308 C 
ATOM      9  O   UNL     1      -9.744  15.259  37.158  1.00  0.00    -0.252 OA
ATOM     10  C   UNL     1     -12.029  14.517  36.928  1.00  0.00     0.139 C 
ATOM     11  C   UNL     1     -12.267  14.856  33.335  1.00  0.00     0.339 C 
ATOM     12  O   UNL     1     -12.544  13.671  33.321  1.00  0.00    -0.246 OA
ATOM     13  O   UNL     1     -13.245  15.783  33.365  1.00  0.00    -0.478 OA
ATOM     14  H   UNL     1     -13.776  15.535  34.151  1.00  0.00     0.297 HD
ENDROOT
TORSDOF 4
END
