REMARK VINA RESULT:    -5.174      6.185      7.472
REMARK INTER + INTRA:          -6.945
REMARK INTER:                  -6.492
REMARK INTRA:                  -0.454
REMARK UNBOUND:                -0.712
REMARK SMILES CC(=O)Oc1ccccc1C(=O)O
REMARK SMILES IDX 5 1 10 2 6 3 9 4 7 5 8 6 4 7 2 8 3 9 1 10 11 11 12 12 13 13
REMARK H PARENT 13 14
ROOT
ATOM      1  C   UNL     1      -9.552  16.182  26.213  1.00  0.00     0.145 A 
ATOM      2  C   UNL     1      -8.972  17.431  25.951  1.00  0.00     0.102 A 
ATOM      3  C   UNL     1      -9.500  15.148  25.273  1.00  0.00     0.048 A 
ATOM      4  C   UNL     1      -8.365  17.637  24.702  1.00  0.00     0.019 A 
ATOM      5  C   UNL     1      -8.893  15.368  24.039  1.00  0.00     0.004 A 
ATOM      6  C   UNL     1      -8.329  16.611  23.751  1.00  0.00     0.001 A 
ATOM      7  O   UNL     1     -10.149  15.886  27.442  1.00  0.00    -0.426 OA
ATOM      8  C   UNL     1      -9.595  14.763  28.048  1.00  0.00     0.308 C 
ATOM      9  O   UNL     1     -10.066  13.633  28.064  1.00  0.00    -0.252 OA
ATOM     10  C   UNL     1      -8.284  15.145  28.670  1.00  0.00     0.139 C 
ATOM     11  C   UNL     1      -8.989  18.508  26.976  1.00  0.00     0.339 C 
ATOM     12  O   UNL     1      -8.028  19.082  27.455  1.00  0.00    -0.246 OA
ATOM     13  O   UNL     1     -10.238  18.831  27.365  1.00  0.00    -0.478 OA
ATOM     14  H   UNL     1     -10.384  19.714  26.964  1.00  0.00     0.297 HD
ENDROOT
TORSDOF 4
END
