REMARK VINA RESULT:    -5.430      7.109      9.470
REMARK INTER + INTRA:          -5.430
REMARK INTER:                  -5.430
REMARK INTRA:                   0.000
REMARK UNBOUND:                 0.000
REMARK SMILES Cn1c(=O)c2c(ncn2C)n(C)c1=O
REMARK SMILES IDX 10 1 9 2 8 3 7 4 6 5 5 6 3 7 4 8 2 9 1 10 13 11 14 12 11 13
REMARK SMILES IDX 12 14
REMARK H PARENT
ROOT
ATOM      1  C   UNL     1      -8.378  15.865  22.234  1.00  0.00     0.151 C 
ATOM      2  N   UNL     1      -8.928  16.218  23.516  1.00  0.00    -0.328 N 
ATOM      3  C   UNL     1     -10.135  15.808  24.020  1.00  0.00     0.202 A 
ATOM      4  N   UNL     1     -10.355  16.303  25.222  1.00  0.00    -0.218 NA
ATOM      5  C   UNL     1      -9.248  17.052  25.487  1.00  0.00     0.167 A 
ATOM      6  C   UNL     1      -8.354  17.021  24.460  1.00  0.00     0.152 A 
ATOM      7  C   UNL     1      -7.116  17.718  24.484  1.00  0.00     0.282 C 
ATOM      8  O   UNL     1      -6.317  17.683  23.553  1.00  0.00    -0.267 OA
ATOM      9  N   UNL     1      -6.921  18.434  25.669  1.00  0.00    -0.261 N 
ATOM     10  C   UNL     1      -5.692  19.190  25.816  1.00  0.00     0.159 C 
ATOM     11  C   UNL     1      -7.822  18.492  26.753  1.00  0.00     0.332 C 
ATOM     12  O   UNL     1      -7.559  19.155  27.761  1.00  0.00    -0.247 OA
ATOM     13  N   UNL     1      -9.011  17.772  26.633  1.00  0.00    -0.279 N 
ATOM     14  C   UNL     1      -9.991  17.779  27.703  1.00  0.00     0.157 C 
ENDROOT
TORSDOF 0
END
