REMARK VINA RESULT:    -5.318      7.081      8.846
REMARK INTER + INTRA:          -5.318
REMARK INTER:                  -5.318
REMARK INTRA:                   0.000
REMARK UNBOUND:                 0.000
REMARK SMILES Cn1c(=O)c2c(ncn2C)n(C)c1=O
REMARK SMILES IDX 10 1 9 2 8 3 7 4 6 5 5 6 3 7 4 8 2 9 1 10 13 11 14 12 11 13
REMARK SMILES IDX 12 14
REMARK H PARENT
ROOT
ATOM      1  C   UNL     1      -4.896  19.163  25.427  1.00  0.00     0.151 C 
ATOM      2  N   UNL     1      -6.115  18.899  26.146  1.00  0.00    -0.328 N 
ATOM      3  C   UNL     1      -6.410  19.312  27.419  1.00  0.00     0.202 A 
ATOM      4  N   UNL     1      -7.607  18.911  27.796  1.00  0.00    -0.218 NA
ATOM      5  C   UNL     1      -8.086  18.220  26.724  1.00  0.00     0.167 A 
ATOM      6  C   UNL     1      -7.195  18.194  25.695  1.00  0.00     0.152 A 
ATOM      7  C   UNL     1      -7.449  17.540  24.460  1.00  0.00     0.282 C 
ATOM      8  O   UNL     1      -6.639  17.522  23.539  1.00  0.00    -0.267 OA
ATOM      9  N   UNL     1      -8.707  16.929  24.420  1.00  0.00    -0.261 N 
ATOM     10  C   UNL     1      -9.086  16.225  23.210  1.00  0.00     0.159 C 
ATOM     11  C   UNL     1      -9.656  16.933  25.463  1.00  0.00     0.332 C 
ATOM     12  O   UNL     1     -10.743  16.363  25.333  1.00  0.00    -0.247 OA
ATOM     13  N   UNL     1      -9.312  17.604  26.637  1.00  0.00    -0.279 N 
ATOM     14  C   UNL     1     -10.232  17.655  27.757  1.00  0.00     0.157 C 
ENDROOT
TORSDOF 0
END
