REMARK VINA RESULT:   -11.043      1.328      9.888
REMARK INTER + INTRA:         -23.618
REMARK INTER:                 -20.983
REMARK INTRA:                  -2.635
REMARK UNBOUND:                -2.892
REMARK SMILES O=C1N(Cc2ccc3ccccc3c2)[C@H](Cc2ccccc2)[C@H](O)[C@@H](O)[C@@H](Cc2ccccc2)N1Cc1ccc2ccccc2c1
REMARK SMILES IDX 2 1 1 2 3 3 4 4 5 5 6 6 14 7 7 8 13 9 8 10 12 11 9 12 11 13
REMARK SMILES IDX 10 14 15 15 23 16 24 18 16 20 17 21 18 22 22 23 19 24 21 25
REMARK SMILES IDX 20 26 35 27 27 28 25 29 26 31 28 33 29 34 30 35 34 36 31 37
REMARK SMILES IDX 33 38 32 39 36 40 37 41 46 42 38 43 45 44 39 45 44 46 40 47
REMARK SMILES IDX 43 48 41 49 42 50
REMARK H PARENT 24 19 26 32
REMARK Flexibility Score:   80.900
ROOT
ATOM      1  C   UNL     1      -8.340  15.069  28.003  1.00  0.00     0.321 C 
ATOM      2  O   UNL     1      -7.221  14.724  28.396  1.00  0.00    -0.248 OA
ATOM      3  N   UNL     1      -8.532  15.518  26.698  1.00  0.00    -0.314 N 
ATOM      4  C   UNL     1      -8.813  14.467  25.703  1.00  0.00     0.157 C 
ATOM      5  C   UNL     1      -8.945  14.984  24.286  1.00  0.00    -0.028 A 
ATOM      6  C   UNL     1     -10.180  15.439  23.810  1.00  0.00     0.006 A 
ATOM      7  C   UNL     1      -7.838  15.015  23.424  1.00  0.00     0.014 A 
ATOM      8  C   UNL     1     -10.311  15.895  22.496  1.00  0.00     0.009 A 
ATOM      9  C   UNL     1      -7.954  15.469  22.100  1.00  0.00    -0.018 A 
ATOM     10  C   UNL     1      -9.209  15.913  21.628  1.00  0.00    -0.018 A 
ATOM     11  C   UNL     1      -6.847  15.491  21.236  1.00  0.00     0.009 A 
ATOM     12  C   UNL     1      -9.324  16.364  20.303  1.00  0.00     0.009 A 
ATOM     13  C   UNL     1      -6.978  15.941  19.922  1.00  0.00     0.001 A 
ATOM     14  C   UNL     1      -8.216  16.377  19.456  1.00  0.00     0.001 A 
ATOM     15  C   UNL     1      -8.829  16.921  26.266  1.00  0.00     0.123 C 
ATOM     16  C   UNL     1     -10.129  17.513  26.860  1.00  0.00     0.168 CG
ATOM     17  G   UNL     1     -10.255  17.286  28.370  1.00  0.00     0.000 G0
ATOM     18  O   UNL     1     -10.199  18.935  26.628  1.00  0.00    -0.388 OA
ATOM     19  H   UNL     1      -9.278  19.257  26.605  1.00  0.00     0.211 HD
ATOM     20  C   UNL     1      -7.610  17.880  26.408  1.00  0.00     0.063 C 
ATOM     21  C   UNL     1      -6.745  18.005  25.171  1.00  0.00    -0.046 A 
ATOM     22  C   UNL     1      -5.420  17.549  25.183  1.00  0.00     0.004 A 
ATOM     23  C   UNL     1      -7.266  18.543  23.986  1.00  0.00     0.004 A 
ATOM     24  C   UNL     1      -4.623  17.654  24.041  1.00  0.00     0.000 A 
ATOM     25  C   UNL     1      -6.468  18.649  22.845  1.00  0.00     0.000 A 
ATOM     26  C   UNL     1      -5.147  18.207  22.874  1.00  0.00     0.000 A 
ATOM     27  N   UNL     1      -9.423  14.995  28.861  1.00  0.00    -0.314 N 
ATOM     28  C   UNL     1     -10.635  15.827  28.691  1.00  0.00     0.123 C 
ATOM     29  C   UNL     1     -10.280  17.286  28.353  1.00  0.00     0.168 CG
ATOM     30  G   UNL     1     -10.119  17.483  26.842  1.00  0.00     0.000 G0
ATOM     31  O   UNL     1     -11.261  18.213  28.843  1.00  0.00    -0.388 OA
ATOM     32  H   UNL     1     -11.116  18.248  29.810  1.00  0.00     0.211 HD
ATOM     33  C   UNL     1     -11.713  15.233  27.754  1.00  0.00     0.063 C 
ATOM     34  C   UNL     1     -12.619  14.241  28.451  1.00  0.00    -0.046 A 
ATOM     35  C   UNL     1     -12.590  12.885  28.100  1.00  0.00     0.004 A 
ATOM     36  C   UNL     1     -13.517  14.671  29.438  1.00  0.00     0.004 A 
ATOM     37  C   UNL     1     -13.444  11.975  28.725  1.00  0.00     0.000 A 
ATOM     38  C   UNL     1     -14.369  13.758  30.062  1.00  0.00     0.000 A 
ATOM     39  C   UNL     1     -14.333  12.412  29.706  1.00  0.00     0.000 A 
ATOM     40  C   UNL     1      -9.299  14.084  30.008  1.00  0.00     0.157 C 
ATOM     41  C   UNL     1      -9.206  14.819  31.328  1.00  0.00    -0.028 A 
ATOM     42  C   UNL     1      -9.850  14.323  32.470  1.00  0.00     0.014 A 
ATOM     43  C   UNL     1      -8.457  15.997  31.438  1.00  0.00     0.006 A 
ATOM     44  C   UNL     1      -9.740  14.972  33.712  1.00  0.00    -0.018 A 
ATOM     45  C   UNL     1      -8.340  16.657  32.664  1.00  0.00     0.009 A 
ATOM     46  C   UNL     1     -10.371  14.465  34.860  1.00  0.00     0.009 A 
ATOM     47  C   UNL     1      -8.973  16.154  33.810  1.00  0.00    -0.018 A 
ATOM     48  C   UNL     1     -10.249  15.118  36.087  1.00  0.00     0.001 A 
ATOM     49  C   UNL     1      -8.862  16.800  35.052  1.00  0.00     0.009 A 
ATOM     50  C   UNL     1      -9.496  16.285  36.183  1.00  0.00     0.001 A 
ENDROOT
TORSDOF 10
END
