REMARK VINA RESULT:   -11.129      0.000      0.000
REMARK INTER + INTRA:         -23.780
REMARK INTER:                 -20.888
REMARK INTRA:                  -2.892
REMARK UNBOUND:                -2.892
REMARK SMILES O=C1N(Cc2ccc3ccccc3c2)[C@H](Cc2ccccc2)[C@H](O)[C@@H](O)[C@@H](Cc2ccccc2)N1Cc1ccc2ccccc2c1
REMARK SMILES IDX 2 1 1 2 3 3 4 4 5 5 6 6 14 7 7 8 13 9 8 10 12 11 9 12 11 13
REMARK SMILES IDX 10 14 15 15 23 16 24 18 16 20 17 21 18 22 22 23 19 24 21 25
REMARK SMILES IDX 20 26 35 27 27 28 25 29 26 31 28 33 29 34 30 35 34 36 31 37
REMARK SMILES IDX 33 38 32 39 36 40 37 41 46 42 38 43 45 44 39 45 44 46 40 47
REMARK SMILES IDX 43 48 41 49 42 50
REMARK H PARENT 24 19 26 32
REMARK Flexibility Score:   80.900
ROOT
ATOM      1  C   UNL     1      -9.518  14.524  28.074  1.00  0.00     0.321 C 
ATOM      2  O   UNL     1      -9.979  13.405  27.833  1.00  0.00    -0.248 OA
ATOM      3  N   UNL     1      -9.662  15.101  29.334  1.00  0.00    -0.314 N 
ATOM      4  C   UNL     1      -8.589  14.793  30.297  1.00  0.00     0.157 C 
ATOM      5  C   UNL     1      -8.909  15.195  31.722  1.00  0.00    -0.028 A 
ATOM      6  C   UNL     1      -8.593  16.478  32.183  1.00  0.00     0.006 A 
ATOM      7  C   UNL     1      -9.526  14.294  32.603  1.00  0.00     0.014 A 
ATOM      8  C   UNL     1      -8.866  16.845  33.503  1.00  0.00     0.009 A 
ATOM      9  C   UNL     1      -9.805  14.648  33.933  1.00  0.00    -0.018 A 
ATOM     10  C   UNL     1      -9.468  15.941  34.391  1.00  0.00    -0.018 A 
ATOM     11  C   UNL     1     -10.413  13.742  34.818  1.00  0.00     0.009 A 
ATOM     12  C   UNL     1      -9.745  16.292  35.722  1.00  0.00     0.009 A 
ATOM     13  C   UNL     1     -10.682  14.107  36.137  1.00  0.00     0.001 A 
ATOM     14  C   UNL     1     -10.348  15.380  36.589  1.00  0.00     0.001 A 
ATOM     15  C   UNL     1     -10.560  16.243  29.701  1.00  0.00     0.123 C 
ATOM     16  C   UNL     1     -10.268  17.558  28.940  1.00  0.00     0.168 CG
ATOM     17  G   UNL     1     -10.075  17.349  27.435  1.00  0.00     0.000 G0
ATOM     18  O   UNL     1     -11.346  18.501  29.112  1.00  0.00    -0.388 OA
ATOM     19  H   UNL     1     -12.083  18.183  28.558  1.00  0.00     0.211 HD
ATOM     20  C   UNL     1     -12.071  15.865  29.694  1.00  0.00     0.063 C 
ATOM     21  C   UNL     1     -12.472  14.808  30.701  1.00  0.00    -0.046 A 
ATOM     22  C   UNL     1     -12.947  15.178  31.967  1.00  0.00     0.004 A 
ATOM     23  C   UNL     1     -12.409  13.447  30.373  1.00  0.00     0.004 A 
ATOM     24  C   UNL     1     -13.327  14.206  32.895  1.00  0.00     0.000 A 
ATOM     25  C   UNL     1     -12.788  12.476  31.303  1.00  0.00     0.000 A 
ATOM     26  C   UNL     1     -13.243  12.856  32.563  1.00  0.00     0.000 A 
ATOM     27  N   UNL     1      -8.832  15.212  27.088  1.00  0.00    -0.314 N 
ATOM     28  C   UNL     1      -8.724  16.689  27.072  1.00  0.00     0.123 C 
ATOM     29  C   UNL     1     -10.068  17.361  27.403  1.00  0.00     0.168 CG
ATOM     30  G   UNL     1     -10.238  17.549  28.913  1.00  0.00     0.000 G0
ATOM     31  O   UNL     1     -10.215  18.633  26.754  1.00  0.00    -0.388 OA
ATOM     32  H   UNL     1     -11.088  18.594  26.315  1.00  0.00     0.211 HD
ATOM     33  C   UNL     1      -7.540  17.268  27.883  1.00  0.00     0.063 C 
ATOM     34  C   UNL     1      -6.247  17.301  27.098  1.00  0.00    -0.046 A 
ATOM     35  C   UNL     1      -5.037  16.946  27.708  1.00  0.00     0.004 A 
ATOM     36  C   UNL     1      -6.239  17.712  25.757  1.00  0.00     0.004 A 
ATOM     37  C   UNL     1      -3.841  17.001  26.991  1.00  0.00     0.000 A 
ATOM     38  C   UNL     1      -5.042  17.765  25.043  1.00  0.00     0.000 A 
ATOM     39  C   UNL     1      -3.844  17.410  25.659  1.00  0.00     0.000 A 
ATOM     40  C   UNL     1      -8.254  14.411  26.000  1.00  0.00     0.157 C 
ATOM     41  C   UNL     1      -8.585  14.965  24.630  1.00  0.00    -0.028 A 
ATOM     42  C   UNL     1      -7.575  15.166  23.677  1.00  0.00     0.014 A 
ATOM     43  C   UNL     1      -9.906  15.269  24.282  1.00  0.00     0.006 A 
ATOM     44  C   UNL     1      -7.870  15.641  22.389  1.00  0.00    -0.018 A 
ATOM     45  C   UNL     1     -10.216  15.746  23.006  1.00  0.00     0.009 A 
ATOM     46  C   UNL     1      -6.862  15.826  21.428  1.00  0.00     0.009 A 
ATOM     47  C   UNL     1      -9.210  15.935  22.048  1.00  0.00    -0.018 A 
ATOM     48  C   UNL     1      -7.171  16.295  20.151  1.00  0.00     0.001 A 
ATOM     49  C   UNL     1      -9.504  16.407  20.759  1.00  0.00     0.009 A 
ATOM     50  C   UNL     1      -8.490  16.587  19.817  1.00  0.00     0.001 A 
ENDROOT
TORSDOF 10
END
