REMARK VINA RESULT:    -9.369      1.564      5.163
REMARK INTER + INTRA:         -20.477
REMARK INTER:                 -18.135
REMARK INTRA:                  -2.342
REMARK UNBOUND:                -2.892
REMARK SMILES O=C1N(Cc2ccc3ccccc3c2)[C@H](Cc2ccccc2)[C@H](O)[C@@H](O)[C@@H](Cc2ccccc2)N1Cc1ccc2ccccc2c1
REMARK SMILES IDX 2 1 1 2 3 3 4 4 5 5 6 6 14 7 7 8 13 9 8 10 12 11 9 12 11 13
REMARK SMILES IDX 10 14 15 15 23 16 24 18 16 20 17 21 18 22 22 23 19 24 21 25
REMARK SMILES IDX 20 26 35 27 27 28 25 29 26 31 28 33 29 34 30 35 34 36 31 37
REMARK SMILES IDX 33 38 32 39 36 40 37 41 46 42 38 43 45 44 39 45 44 46 40 47
REMARK SMILES IDX 43 48 41 49 42 50
REMARK H PARENT 24 19 26 32
REMARK Flexibility Score:   80.900
ROOT
ATOM      1  C   UNL     1      -9.346  18.218  27.241  1.00  0.00     0.321 C 
ATOM      2  O   UNL     1      -9.949  19.275  27.031  1.00  0.00    -0.248 OA
ATOM      3  N   UNL     1      -9.814  17.303  28.181  1.00  0.00    -0.314 N 
ATOM      4  C   UNL     1     -11.142  17.602  28.748  1.00  0.00     0.157 C 
ATOM      5  C   UNL     1     -11.917  16.373  29.175  1.00  0.00    -0.028 A 
ATOM      6  C   UNL     1     -12.725  15.691  28.258  1.00  0.00     0.006 A 
ATOM      7  C   UNL     1     -11.843  15.896  30.493  1.00  0.00     0.014 A 
ATOM      8  C   UNL     1     -13.460  14.571  28.654  1.00  0.00     0.009 A 
ATOM      9  C   UNL     1     -12.577  14.773  30.906  1.00  0.00    -0.018 A 
ATOM     10  C   UNL     1     -13.399  14.102  29.974  1.00  0.00    -0.018 A 
ATOM     11  C   UNL     1     -12.509  14.302  32.228  1.00  0.00     0.009 A 
ATOM     12  C   UNL     1     -14.134  12.980  30.390  1.00  0.00     0.009 A 
ATOM     13  C   UNL     1     -13.246  13.186  32.625  1.00  0.00     0.001 A 
ATOM     14  C   UNL     1     -14.058  12.526  31.707  1.00  0.00     0.001 A 
ATOM     15  C   UNL     1      -9.304  15.914  28.413  1.00  0.00     0.123 C 
ATOM     16  C   UNL     1      -9.142  15.068  27.127  1.00  0.00     0.168 CG
ATOM     17  G   UNL     1      -7.936  15.488  26.282  1.00  0.00     0.000 G0
ATOM     18  O   UNL     1      -8.981  13.671  27.449  1.00  0.00    -0.388 OA
ATOM     19  H   UNL     1      -8.777  13.215  26.611  1.00  0.00     0.211 HD
ATOM     20  C   UNL     1      -8.046  15.865  29.330  1.00  0.00     0.063 C 
ATOM     21  C   UNL     1      -8.335  15.694  30.806  1.00  0.00    -0.046 A 
ATOM     22  C   UNL     1      -8.357  16.807  31.658  1.00  0.00     0.004 A 
ATOM     23  C   UNL     1      -8.622  14.429  31.337  1.00  0.00     0.004 A 
ATOM     24  C   UNL     1      -8.633  16.654  33.019  1.00  0.00     0.000 A 
ATOM     25  C   UNL     1      -8.897  14.278  32.698  1.00  0.00     0.000 A 
ATOM     26  C   UNL     1      -8.899  15.389  33.538  1.00  0.00     0.000 A 
ATOM     27  N   UNL     1      -8.200  17.926  26.522  1.00  0.00    -0.314 N 
ATOM     28  C   UNL     1      -8.125  16.806  25.558  1.00  0.00     0.123 C 
ATOM     29  C   UNL     1      -7.940  15.454  26.270  1.00  0.00     0.168 CG
ATOM     30  G   UNL     1      -9.165  15.102  27.120  1.00  0.00     0.000 G0
ATOM     31  O   UNL     1      -7.687  14.383  25.348  1.00  0.00    -0.388 OA
ATOM     32  H   UNL     1      -8.531  13.892  25.292  1.00  0.00     0.211 HD
ATOM     33  C   UNL     1      -9.246  16.781  24.491  1.00  0.00     0.063 C 
ATOM     34  C   UNL     1      -8.717  16.622  23.083  1.00  0.00    -0.046 A 
ATOM     35  C   UNL     1      -9.595  16.626  21.991  1.00  0.00     0.004 A 
ATOM     36  C   UNL     1      -7.346  16.441  22.854  1.00  0.00     0.004 A 
ATOM     37  C   UNL     1      -9.109  16.454  20.693  1.00  0.00     0.000 A 
ATOM     38  C   UNL     1      -6.864  16.270  21.556  1.00  0.00     0.000 A 
ATOM     39  C   UNL     1      -7.744  16.275  20.477  1.00  0.00     0.000 A 
ATOM     40  C   UNL     1      -7.015  18.750  26.802  1.00  0.00     0.157 C 
ATOM     41  C   UNL     1      -5.729  18.089  26.353  1.00  0.00    -0.028 A 
ATOM     42  C   UNL     1      -5.265  18.247  25.039  1.00  0.00     0.014 A 
ATOM     43  C   UNL     1      -4.967  17.326  27.246  1.00  0.00     0.006 A 
ATOM     44  C   UNL     1      -4.053  17.674  24.617  1.00  0.00    -0.018 A 
ATOM     45  C   UNL     1      -3.763  16.746  26.842  1.00  0.00     0.009 A 
ATOM     46  C   UNL     1      -3.579  17.847  23.306  1.00  0.00     0.009 A 
ATOM     47  C   UNL     1      -3.291  16.914  25.532  1.00  0.00    -0.018 A 
ATOM     48  C   UNL     1      -2.371  17.276  22.903  1.00  0.00     0.001 A 
ATOM     49  C   UNL     1      -2.078  16.345  25.111  1.00  0.00     0.009 A 
ATOM     50  C   UNL     1      -1.622  16.524  23.804  1.00  0.00     0.001 A 
ENDROOT
TORSDOF 10
END
