REMARK VINA RESULT:    -8.940      4.556      8.371
REMARK INTER + INTRA:         -19.672
REMARK INTER:                 -13.683
REMARK INTRA:                  -5.989
REMARK UNBOUND:                -2.892
REMARK SMILES O=C1N(Cc2ccc3ccccc3c2)[C@H](Cc2ccccc2)[C@H](O)[C@@H](O)[C@@H](Cc2ccccc2)N1Cc1ccc2ccccc2c1
REMARK SMILES IDX 2 1 1 2 3 3 4 4 5 5 6 6 14 7 7 8 13 9 8 10 12 11 9 12 11 13
REMARK SMILES IDX 10 14 15 15 23 16 24 18 16 20 17 21 18 22 22 23 19 24 21 25
REMARK SMILES IDX 20 26 35 27 27 28 25 29 26 31 28 33 29 34 30 35 34 36 31 37
REMARK SMILES IDX 33 38 32 39 36 40 37 41 46 42 38 43 45 44 39 45 44 46 40 47
REMARK SMILES IDX 43 48 41 49 42 50
REMARK H PARENT 24 19 26 32
REMARK Flexibility Score:   80.900
ROOT
ATOM      1  C   UNL     1      -5.473  17.742  21.507  1.00  0.00     0.321 C 
ATOM      2  O   UNL     1      -4.587  18.598  21.588  1.00  0.00    -0.248 OA
ATOM      3  N   UNL     1      -6.524  17.712  22.420  1.00  0.00    -0.314 N 
ATOM      4  C   UNL     1      -6.436  18.694  23.517  1.00  0.00     0.157 C 
ATOM      5  C   UNL     1      -6.536  18.081  24.898  1.00  0.00    -0.028 A 
ATOM      6  C   UNL     1      -5.513  17.260  25.385  1.00  0.00     0.006 A 
ATOM      7  C   UNL     1      -7.653  18.321  25.714  1.00  0.00     0.014 A 
ATOM      8  C   UNL     1      -5.612  16.674  26.649  1.00  0.00     0.009 A 
ATOM      9  C   UNL     1      -7.768  17.738  26.986  1.00  0.00    -0.018 A 
ATOM     10  C   UNL     1      -6.734  16.900  27.460  1.00  0.00    -0.018 A 
ATOM     11  C   UNL     1      -8.890  17.971  27.798  1.00  0.00     0.009 A 
ATOM     12  C   UNL     1      -6.852  16.316  28.731  1.00  0.00     0.009 A 
ATOM     13  C   UNL     1      -8.992  17.383  29.058  1.00  0.00     0.001 A 
ATOM     14  C   UNL     1      -7.974  16.555  29.524  1.00  0.00     0.001 A 
ATOM     15  C   UNL     1      -7.862  17.067  22.228  1.00  0.00     0.123 C 
ATOM     16  C   UNL     1      -8.450  17.221  20.805  1.00  0.00     0.168 CG
ATOM     17  G   UNL     1      -7.771  16.313  19.776  1.00  0.00     0.000 G0
ATOM     18  O   UNL     1      -9.859  16.909  20.796  1.00  0.00    -0.388 OA
ATOM     19  H   UNL     1     -10.329  17.748  20.961  1.00  0.00     0.211 HD
ATOM     20  C   UNL     1      -7.918  15.600  22.749  1.00  0.00     0.063 C 
ATOM     21  C   UNL     1      -8.720  15.400  24.017  1.00  0.00    -0.046 A 
ATOM     22  C   UNL     1      -9.992  15.974  24.151  1.00  0.00     0.004 A 
ATOM     23  C   UNL     1      -8.221  14.609  25.061  1.00  0.00     0.004 A 
ATOM     24  C   UNL     1     -10.738  15.784  25.316  1.00  0.00     0.000 A 
ATOM     25  C   UNL     1      -8.968  14.420  26.226  1.00  0.00     0.000 A 
ATOM     26  C   UNL     1     -10.224  15.010  26.354  1.00  0.00     0.000 A 
ATOM     27  N   UNL     1      -5.435  16.808  20.486  1.00  0.00    -0.314 N 
ATOM     28  C   UNL     1      -6.381  16.830  19.347  1.00  0.00     0.123 C 
ATOM     29  C   UNL     1      -7.771  16.310  19.754  1.00  0.00     0.168 CG
ATOM     30  G   UNL     1      -8.420  17.220  20.802  1.00  0.00     0.000 G0
ATOM     31  O   UNL     1      -8.656  16.186  18.630  1.00  0.00    -0.388 OA
ATOM     32  H   UNL     1      -8.226  15.537  18.039  1.00  0.00     0.211 HD
ATOM     33  C   UNL     1      -6.438  18.165  18.566  1.00  0.00     0.063 C 
ATOM     34  C   UNL     1      -5.310  18.312  17.568  1.00  0.00    -0.046 A 
ATOM     35  C   UNL     1      -5.375  17.671  16.324  1.00  0.00     0.004 A 
ATOM     36  C   UNL     1      -4.175  19.071  17.885  1.00  0.00     0.004 A 
ATOM     37  C   UNL     1      -4.324  17.788  15.413  1.00  0.00     0.000 A 
ATOM     38  C   UNL     1      -3.126  19.186  16.972  1.00  0.00     0.000 A 
ATOM     39  C   UNL     1      -3.200  18.544  15.737  1.00  0.00     0.000 A 
ATOM     40  C   UNL     1      -4.438  15.735  20.605  1.00  0.00     0.157 C 
ATOM     41  C   UNL     1      -3.266  15.922  19.665  1.00  0.00    -0.028 A 
ATOM     42  C   UNL     1      -3.262  15.320  18.398  1.00  0.00     0.014 A 
ATOM     43  C   UNL     1      -2.174  16.717  20.033  1.00  0.00     0.006 A 
ATOM     44  C   UNL     1      -2.202  15.517  17.498  1.00  0.00    -0.018 A 
ATOM     45  C   UNL     1      -1.110  16.920  19.152  1.00  0.00     0.009 A 
ATOM     46  C   UNL     1      -2.206  14.928  16.223  1.00  0.00     0.009 A 
ATOM     47  C   UNL     1      -1.111  16.329  17.880  1.00  0.00    -0.018 A 
ATOM     48  C   UNL     1      -1.148  15.135  15.338  1.00  0.00     0.001 A 
ATOM     49  C   UNL     1      -0.053  16.527  16.978  1.00  0.00     0.009 A 
ATOM     50  C   UNL     1      -0.071  15.933  15.715  1.00  0.00     0.001 A 
ENDROOT
TORSDOF 10
END
