REMARK VINA RESULT:    -9.807      1.438      9.217
REMARK INTER + INTRA:         -21.299
REMARK INTER:                 -19.707
REMARK INTRA:                  -1.592
REMARK UNBOUND:                -2.892
REMARK SMILES O=C1N(Cc2ccc3ccccc3c2)[C@H](Cc2ccccc2)[C@H](O)[C@@H](O)[C@@H](Cc2ccccc2)N1Cc1ccc2ccccc2c1
REMARK SMILES IDX 2 1 1 2 3 3 4 4 5 5 6 6 14 7 7 8 13 9 8 10 12 11 9 12 11 13
REMARK SMILES IDX 10 14 15 15 23 16 24 18 16 20 17 21 18 22 22 23 19 24 21 25
REMARK SMILES IDX 20 26 35 27 27 28 25 29 26 31 28 33 29 34 30 35 34 36 31 37
REMARK SMILES IDX 33 38 32 39 36 40 37 41 46 42 38 43 45 44 39 45 44 46 40 47
REMARK SMILES IDX 43 48 41 49 42 50
REMARK H PARENT 24 19 26 32
REMARK Flexibility Score:   80.900
ROOT
ATOM      1  C   UNL     1     -10.341  16.858  29.011  1.00  0.00     0.321 C 
ATOM      2  O   UNL     1     -10.350  17.876  29.710  1.00  0.00    -0.248 OA
ATOM      3  N   UNL     1     -10.439  16.942  27.624  1.00  0.00    -0.314 N 
ATOM      4  C   UNL     1      -9.835  18.143  27.020  1.00  0.00     0.157 C 
ATOM      5  C   UNL     1      -8.387  17.963  26.613  1.00  0.00    -0.028 A 
ATOM      6  C   UNL     1      -7.978  18.241  25.304  1.00  0.00     0.006 A 
ATOM      7  C   UNL     1      -7.430  17.514  27.537  1.00  0.00     0.014 A 
ATOM      8  C   UNL     1      -6.648  18.053  24.920  1.00  0.00     0.009 A 
ATOM      9  C   UNL     1      -6.090  17.319  27.165  1.00  0.00    -0.018 A 
ATOM     10  C   UNL     1      -5.694  17.590  25.836  1.00  0.00    -0.018 A 
ATOM     11  C   UNL     1      -5.135  16.861  28.087  1.00  0.00     0.009 A 
ATOM     12  C   UNL     1      -4.354  17.392  25.466  1.00  0.00     0.009 A 
ATOM     13  C   UNL     1      -3.808  16.669  27.703  1.00  0.00     0.001 A 
ATOM     14  C   UNL     1      -3.418  16.934  26.393  1.00  0.00     0.001 A 
ATOM     15  C   UNL     1     -10.758  15.825  26.678  1.00  0.00     0.123 C 
ATOM     16  C   UNL     1     -11.892  14.886  27.153  1.00  0.00     0.168 CG
ATOM     17  G   UNL     1     -11.444  13.914  28.249  1.00  0.00     0.000 G0
ATOM     18  O   UNL     1     -13.002  15.645  27.675  1.00  0.00    -0.388 OA
ATOM     19  H   UNL     1     -13.565  15.014  28.162  1.00  0.00     0.211 HD
ATOM     20  C   UNL     1     -10.945  16.300  25.206  1.00  0.00     0.063 C 
ATOM     21  C   UNL     1      -9.928  15.759  24.224  1.00  0.00    -0.046 A 
ATOM     22  C   UNL     1      -8.886  14.932  24.665  1.00  0.00     0.004 A 
ATOM     23  C   UNL     1     -10.034  16.044  22.855  1.00  0.00     0.004 A 
ATOM     24  C   UNL     1      -7.952  14.422  23.760  1.00  0.00     0.000 A 
ATOM     25  C   UNL     1      -9.098  15.535  21.952  1.00  0.00     0.000 A 
ATOM     26  C   UNL     1      -8.057  14.728  22.405  1.00  0.00     0.000 A 
ATOM     27  N   UNL     1     -10.217  15.616  29.609  1.00  0.00    -0.314 N 
ATOM     28  C   UNL     1     -11.308  14.616  29.608  1.00  0.00     0.123 C 
ATOM     29  C   UNL     1     -11.444  13.924  28.241  1.00  0.00     0.168 CG
ATOM     30  G   UNL     1     -11.905  14.909  27.162  1.00  0.00     0.000 G0
ATOM     31  O   UNL     1     -10.218  13.308  27.819  1.00  0.00    -0.388 OA
ATOM     32  H   UNL     1      -9.920  13.836  27.051  1.00  0.00     0.211 HD
ATOM     33  C   UNL     1     -11.287  13.621  30.793  1.00  0.00     0.063 C 
ATOM     34  C   UNL     1     -12.535  12.768  30.869  1.00  0.00    -0.046 A 
ATOM     35  C   UNL     1     -13.766  13.342  31.211  1.00  0.00     0.004 A 
ATOM     36  C   UNL     1     -12.469  11.389  30.625  1.00  0.00     0.004 A 
ATOM     37  C   UNL     1     -14.912  12.550  31.305  1.00  0.00     0.000 A 
ATOM     38  C   UNL     1     -13.617  10.601  30.720  1.00  0.00     0.000 A 
ATOM     39  C   UNL     1     -14.837  11.180  31.061  1.00  0.00     0.000 A 
ATOM     40  C   UNL     1      -8.955  15.342  30.311  1.00  0.00     0.157 C 
ATOM     41  C   UNL     1      -9.039  15.637  31.794  1.00  0.00    -0.028 A 
ATOM     42  C   UNL     1      -9.783  14.811  32.647  1.00  0.00     0.014 A 
ATOM     43  C   UNL     1      -8.357  16.730  32.344  1.00  0.00     0.006 A 
ATOM     44  C   UNL     1      -9.838  15.048  34.031  1.00  0.00    -0.018 A 
ATOM     45  C   UNL     1      -8.405  16.982  33.717  1.00  0.00     0.009 A 
ATOM     46  C   UNL     1     -10.569  14.209  34.888  1.00  0.00     0.009 A 
ATOM     47  C   UNL     1      -9.138  16.148  34.573  1.00  0.00    -0.018 A 
ATOM     48  C   UNL     1     -10.611  14.455  36.261  1.00  0.00     0.001 A 
ATOM     49  C   UNL     1      -9.191  16.383  35.957  1.00  0.00     0.009 A 
ATOM     50  C   UNL     1      -9.924  15.541  36.795  1.00  0.00     0.001 A 
ENDROOT
TORSDOF 10
END
